 Gaussian 09, Revision A.02,
 Gaussian 09:  EM64L-G09RevA.02 11-Jun-2009

 -------------------
 # td B3LYP/6-31g(d)
 -------------------

 ---
 TON
 ---
 Symbolic Z-matrix:
 Charge =  0 Multiplicity = 1

                         Standard orientation:
 ---------------------------------------------------------------------
 Center     Atomic      Atomic             Coordinates (Angstroms)
 Number     Number       Type             X           Y           Z
 ---------------------------------------------------------------------
      1          6           0        1.155193    0.682463    0.000050
      2          6           0        1.168758   -0.731758    0.000000
      3          6           0        0.017100    1.472104    0.000052
      4          6           0       -0.017099   -1.472103   -0.000053
      5          6           0       -1.168759    0.731759    0.000004
      6          6           0       -1.155193   -0.682462   -0.000046
      7          6           0        3.180174   -0.069635    0.000079
      8          6           0       -3.180174    0.069634   -0.000030
      9          1           0       -4.255408   -0.039132   -0.000062
     10          1           0        4.255407    0.039130    0.000101
     11          1           0        0.034222    2.555363    0.000082
     12          1           0       -0.034222   -2.555363   -0.000098
     13          8           0       -2.467043   -1.098554   -0.000102
     14          8           0        2.467044    1.098554    0.000083
     15          7           0       -2.498583    1.163889   -0.000032
     16          7           0        2.498583   -1.163889    0.000002
 ---------------------------------------------------------------------

 SCF Done:  E(RB3LYP) =  -567.196520530     A.U. after   13 cycles

 Excitation energies and oscillator strengths:

 Excited State   1:      Singlet-A      4.8068 eV  257.94 nm  f=0.1299  <S**2>=0.000
      40 -> 42         0.57000
      40 -> 43         0.10625
      41 -> 42         0.29514
      41 -> 43        -0.26432
 This state for optimization and/or second-order correction.
 Copying the excited state density for this state as the 1-particle RhoCI density.

 Excited State   2:      Singlet-A      4.9452 eV  250.72 nm  f=0.2340  <S**2>=0.000
      40 -> 42        -0.28293
      40 -> 43         0.11272
      41 -> 42         0.61512
      41 -> 43         0.13141

 Excited State   3:      Singlet-A      5.7197 eV  216.77 nm  f=0.0025  <S**2>=0.000
      38 -> 44        -0.13277
      39 -> 42         0.69324

 The electronic state is 1-A.
 Alpha  occ. eigenvalues --  -19.23418 -19.23418 -14.34590 -14.34590 -10.29227
 Alpha  occ. eigenvalues --  -10.29227 -10.26171 -10.26170 -10.23574 -10.23573
 Alpha  occ. eigenvalues --  -10.21532 -10.21532  -1.13878  -1.13789  -0.93933
 Alpha  occ. eigenvalues --   -0.93777  -0.86563  -0.77527  -0.75853  -0.68467
 Alpha  occ. eigenvalues --   -0.63423  -0.61816  -0.60318  -0.55775  -0.55034
 Alpha  occ. eigenvalues --   -0.50135  -0.48919  -0.47600  -0.47208  -0.47074
 Alpha  occ. eigenvalues --   -0.44383  -0.42827  -0.40698  -0.37554  -0.35996
 Alpha  occ. eigenvalues --   -0.35271  -0.32419  -0.30386  -0.30011  -0.24950
 Alpha  occ. eigenvalues --   -0.23743
 Alpha virt. eigenvalues --   -0.04850   0.00427   0.00989   0.04698   0.09775
 Alpha virt. eigenvalues --    0.11956   0.12436   0.12792   0.15149   0.16694
 Alpha virt. eigenvalues --    0.17891   0.20533   0.21743   0.23533   0.25801

 Mulliken atomic charges:
              1
     1  C    0.324629
     2  C    0.222720
     3  C   -0.222093
     4  C   -0.222093
     5  C    0.222719
     6  C    0.324629
     7  C    0.260756
     8  C    0.260756
     9  H    0.182327
    10  H    0.182327
    11  H    0.167125
    12  H    0.167125
    13  O   -0.468361
    14  O   -0.468361
    15  N   -0.467102
    16  N   -0.467102
 Sum of Mulliken atomic charges =   0.00000

 Dipole moment (field-independent basis, Debye):
    X=              0.0000    Y=              0.0000    Z=              0.0001  Tot=              0.0001
 Quadrupole moment (field-independent basis, Debye-Ang):
   XX=            -56.2312   YY=            -68.9069   ZZ=            -66.8989
   XY=              6.4654   XZ=              0.0003   YZ=              0.0001

 Normal termination of Gaussian 09 at Tue Dec 17 23:24:57 2013.
